 Gaussian 16, Revision A.03,
 Gaussian 16:  ES64L-G16RevA.03 25-Dec-2016

 ----------------------------------------------------------------------
 # td=(nstates=10,root=1) b3lyp/6-311g(d,p) guess=read geom=check integ
 ral(ultrafinegrid) scrf=(iefpcm,read,solvent=methanol)
 ----------------------------------------------------------------------

 Candidate Structure: Revised-SAH-42C-3, Conformer: 6, energy calculati
 on with methanol solvation
 ----------------------------------------------------------------------
 Structure from the checkpoint file:  "Revised-SAH-42C-3-conf-6.chk"
 Charge =  0 Multiplicity = 1

                         Standard orientation:
 ---------------------------------------------------------------------
 Center     Atomic      Atomic             Coordinates (Angstroms)
 Number     Number       Type             X           Y           Z
 ---------------------------------------------------------------------
      1          6           0       -0.168399   -1.982208    3.391052
      2          8           0        0.890419   -1.093868    3.059346
      3          1           0        4.815693    0.935130   -0.388612
      4          6           0        6.648004   -0.656331   -1.477061
      5          6           0        4.957455    0.205227   -3.123860
      6          6           0        5.154595   -0.597638   -1.831821
      7          6           0        2.150601   -3.339323    0.028996
      8          6           0        2.119448   -1.065814   -1.152833
      9          6           0        2.028345   -1.835075    0.186739
     10          1           0        3.065344    1.795919    0.524525
     11          1           0        2.559962    0.580608    2.428414
     12          8           0        0.934112    2.261956   -1.373965
     13          1           0       -0.570596    0.505092   -0.553070
     14          6           0       -4.753016   -1.575706   -0.828031
     15          6           0       -5.539298   -2.683178   -1.127228
     16          6           0       -6.923737   -2.546911   -1.279734
     17          6           0       -7.515608   -1.291925   -1.129163
     18          6           0       -6.727661   -0.182164   -0.828803
     19          8           0       -3.266553    3.343499    0.215893
     20          6           0       -5.334944   -0.302245   -0.674149
     21          6           0       -4.559900    0.897663   -0.361122
     22          6           0       -3.228120    0.987753   -0.198058
     23          6           0       -2.603976    2.295797    0.126374
     24          8           0        0.717184   -1.548828    0.761611
     25          6           0        2.857840    0.263192   -0.934717
     26          6           0        4.348307   -0.027498   -0.643148
     27          6           0        4.408150   -0.960756    0.599876
     28          6           0        3.015788   -1.196108    1.186533
     29          7           0       -1.261499    2.306029    0.331005
     30          6           0       -0.573261    3.559912    0.668850
     31          6           0        0.885086    3.129672    0.875966
     32          6           0        0.836071   -0.534767    1.747360
     33          6           0       -0.342537    0.411316    1.607157
     34          6           0       -0.329098    1.169563    0.277817
     35          6           0        1.013797    1.866522    0.002388
     36          6           0        2.299081    1.045894    0.286395
     37          6           0        2.220648    0.086334    1.514808
     38          1           0        0.122152   -2.471090    4.324195
     39          1           0       -1.117744   -1.453538    3.552942
     40          1           0       -0.306626   -2.738625    2.611329
     41          1           0        7.226007   -1.111025   -2.289660
     42          1           0        7.043160    0.354268   -1.310480
     43          1           0        6.832513   -1.239861   -0.569055
     44          1           0        3.931584    0.140415   -3.499632
     45          1           0        5.189830    1.266198   -2.963130
     46          1           0        5.622636   -0.164147   -3.912827
     47          1           0        4.816818   -1.628288   -2.016517
     48          1           0        2.018004   -3.837435    0.994816
     49          1           0        1.391043   -3.716610   -0.664775
     50          1           0        3.135465   -3.604343   -0.370561
     51          1           0        1.104215   -0.908385   -1.529311
     52          1           0        2.648143   -1.661450   -1.905139
     53          1           0        1.696486    2.844046   -1.559704
     54          1           0       -3.679908   -1.699469   -0.710727
     55          1           0       -5.073469   -3.658615   -1.242098
     56          1           0       -7.534438   -3.415129   -1.513527
     57          1           0       -8.590199   -1.176766   -1.245169
     58          1           0       -7.189074    0.795879   -0.711263
     59          1           0       -5.130185    1.818754   -0.248871
     60          1           0       -2.594394    0.113040   -0.295341
     61          1           0        2.765582    0.889431   -1.821248
     62          1           0        4.838092   -1.932752    0.325939
     63          1           0        5.063371   -0.548205    1.374588
     64          1           0        3.078393   -1.819254    2.082810
     65          1           0       -1.022571    4.018214    1.554648
     66          1           0       -0.675867    4.266174   -0.161109
     67          1           0        1.599389    3.899782    0.568315
     68          1           0        1.086724    2.891968    1.926152
     69          1           0       -0.316008    1.122192    2.439453
     70          1           0       -1.282312   -0.143600    1.690082
 ---------------------------------------------------------------------

 SCF Done:  E(RB3LYP) =  -1445.30985073     A.U. after   10 cycles

 Excitation energies and oscillator strengths:

 Excited State   1:      Singlet-A      4.1179 eV  301.09 nm  f=0.6585  <S**2>=0.000
     121 ->123         0.21472
     122 ->123         0.66587
 This state for optimization and/or second-order correction.
 Total Energy, E(TD-HF/TD-DFT) =  -1445.15852104
 Copying the excited state density for this state as the 1-particle RhoCI density.

 Excited State   2:      Singlet-A      4.2489 eV  291.80 nm  f=0.0346  <S**2>=0.000
     116 ->123        -0.18579
     119 ->123         0.63669
     119 ->125        -0.10187
     120 ->123        -0.15512
     122 ->123        -0.11178

 Excited State   3:      Singlet-A      4.4100 eV  281.14 nm  f=0.2546  <S**2>=0.000
     121 ->123         0.66586
     122 ->123        -0.20000

 Excited State   4:      Singlet-A      4.5796 eV  270.73 nm  f=0.0107  <S**2>=0.000
     118 ->123         0.63070
     121 ->124        -0.12490
     122 ->124         0.28607

 Excited State   5:      Singlet-A      4.7817 eV  259.29 nm  f=0.0003  <S**2>=0.000
     119 ->123         0.16243
     120 ->123         0.68698

 Excited State   6:      Singlet-A      5.1250 eV  241.92 nm  f=0.0057  <S**2>=0.000
     116 ->123         0.44581
     117 ->123         0.51638
     119 ->123         0.16918

 Excited State   7:      Singlet-A      5.1619 eV  240.19 nm  f=0.0004  <S**2>=0.000
     116 ->123         0.49794
     117 ->123        -0.47585
     119 ->123         0.10853

 Excited State   8:      Singlet-A      5.4837 eV  226.09 nm  f=0.1856  <S**2>=0.000
     118 ->123        -0.28677
     118 ->125         0.14869
     122 ->124         0.62428

 Excited State   9:      Singlet-A      5.5563 eV  223.14 nm  f=0.0002  <S**2>=0.000
     114 ->123         0.15020
     115 ->123         0.67933
     116 ->123        -0.10127

 Excited State  10:      Singlet-A      5.6717 eV  218.60 nm  f=0.0015  <S**2>=0.000
     112 ->123        -0.11822
     113 ->123        -0.23820
     114 ->123         0.62939
     115 ->123        -0.16107

 The electronic state is 1-A.
 Alpha  occ. eigenvalues --  -19.12182 -19.12167 -19.12060 -19.07872 -14.33970
 Alpha  occ. eigenvalues --  -10.27033 -10.26958 -10.23360 -10.22216 -10.21289
 Alpha  occ. eigenvalues --  -10.20301 -10.19971 -10.19123 -10.18882 -10.18005
 Alpha  occ. eigenvalues --  -10.17991 -10.17970 -10.17863 -10.17803 -10.17747
 Alpha  occ. eigenvalues --  -10.17481 -10.17416 -10.16958 -10.16808 -10.16776
 Alpha  occ. eigenvalues --  -10.16550 -10.16276 -10.16227 -10.15880 -10.15514
 Alpha  occ. eigenvalues --  -10.15505 -10.14984 -10.14959  -1.07146  -1.03706
 Alpha  occ. eigenvalues --   -1.02762  -1.00875  -0.94223  -0.86766  -0.85938
 Alpha  occ. eigenvalues --   -0.81727  -0.80590  -0.79638  -0.78135  -0.76325
 Alpha  occ. eigenvalues --   -0.75447  -0.75319  -0.74105  -0.72916  -0.71691
 Alpha  occ. eigenvalues --   -0.68558  -0.67912  -0.67624  -0.66036  -0.62967
 Alpha  occ. eigenvalues --   -0.62061  -0.61240  -0.60966  -0.60006  -0.58734
 Alpha  occ. eigenvalues --   -0.57567  -0.55665  -0.54563  -0.53592  -0.52434
 Alpha  occ. eigenvalues --   -0.52245  -0.51596  -0.51183  -0.50469  -0.48177
 Alpha  occ. eigenvalues --   -0.48116  -0.47308  -0.46585  -0.46222  -0.45990
 Alpha  occ. eigenvalues --   -0.44972  -0.44583  -0.44063  -0.43776  -0.43180
 Alpha  occ. eigenvalues --   -0.43100  -0.42511  -0.42333  -0.41940  -0.41689
 Alpha  occ. eigenvalues --   -0.41031  -0.40850  -0.40095  -0.39704  -0.39524
 Alpha  occ. eigenvalues --   -0.38766  -0.38686  -0.38304  -0.38005  -0.37823
 Alpha  occ. eigenvalues --   -0.37708  -0.37536  -0.36627  -0.36418  -0.35554
 Alpha  occ. eigenvalues --   -0.35434  -0.35269  -0.34858  -0.34666  -0.34465
 Alpha  occ. eigenvalues --   -0.34304  -0.33466  -0.32932  -0.32721  -0.31727
 Alpha  occ. eigenvalues --   -0.30853  -0.30069  -0.29452  -0.29166  -0.28659
 Alpha  occ. eigenvalues --   -0.27568  -0.27395  -0.26361  -0.26110  -0.25929
 Alpha  occ. eigenvalues --   -0.24523  -0.23358
 Alpha virt. eigenvalues --   -0.06716  -0.01553   0.01632   0.03094   0.04287
 Alpha virt. eigenvalues --    0.04939   0.05488   0.05871   0.06281   0.06729
 Alpha virt. eigenvalues --    0.07150   0.07540   0.07929   0.08210   0.08709

 Mulliken charges:
               1
     1  C   -0.126585
     2  O   -0.419243
     3  H    0.116303
     4  C   -0.277388
     5  C   -0.288428
     6  C   -0.182078
     7  C   -0.224592
     8  C   -0.087755
     9  C    0.010245
    10  H    0.138758
    11  H    0.130610
    12  O   -0.453386
    13  H    0.160493
    14  C   -0.080388
    15  C   -0.118184
    16  C   -0.102566
    17  C   -0.116886
    18  C   -0.077222
    19  O   -0.492206
    20  C   -0.095428
    21  C   -0.040103
    22  C   -0.235033
    23  C    0.448608
    24  O   -0.432903
    25  C   -0.177077
    26  C   -0.166836
    27  C   -0.099252
    28  C   -0.192176
    29  N   -0.409551
    30  C    0.003504
    31  C   -0.223908
    32  C    0.244828
    33  C   -0.049487
    34  C   -0.035208
    35  C    0.035810
    36  C   -0.088295
    37  C   -0.117053
    38  H    0.122012
    39  H    0.107342
    40  H    0.108277
    41  H    0.109172
    42  H    0.101990
    43  H    0.108281
    44  H    0.114533
    45  H    0.104300
    46  H    0.108315
    47  H    0.116223
    48  H    0.113397
    49  H    0.113425
    50  H    0.116419
    51  H    0.122597
    52  H    0.123818
    53  H    0.279023
    54  H    0.119953
    55  H    0.122741
    56  H    0.123930
    57  H    0.123102
    58  H    0.118076
    59  H    0.108178
    60  H    0.153668
    61  H    0.116732
    62  H    0.122515
    63  H    0.119369
    64  H    0.123568
    65  H    0.127758
    66  H    0.122924
    67  H    0.138259
    68  H    0.139267
    69  H    0.134109
    70  H    0.136781
 Sum of Mulliken charges =  -0.00000

 Dipole moment (field-independent basis, Debye):
    X=              6.1634    Y=             -3.5180    Z=              0.1277  Tot=              7.0979
 Quadrupole moment (field-independent basis, Debye-Ang):
   XX=           -186.6201   YY=           -200.1785   ZZ=           -203.5556
   XY=             29.6289   XZ=             -0.4332   YZ=              3.9859

 Normal termination of Gaussian 16 at Thu Jun 24 00:34:44 2021.
