 Gaussian 16, Revision A.03,
 Gaussian 16:  ES64L-G16RevA.03 25-Dec-2016

 ----------------------------------------------------------------------
 # td=(nstates=10,root=1) b3lyp/6-311g(d,p) guess=read geom=check integ
 ral(ultrafinegrid) scrf=(iefpcm,read,solvent=methanol)
 ----------------------------------------------------------------------

 Candidate Structure: Revised-SAH-42C-3, Conformer: 3, energy calculati
 on with methanol solvation
 ----------------------------------------------------------------------
 Structure from the checkpoint file:  "Revised-SAH-42C-3-conf-3.chk"
 Charge =  0 Multiplicity = 1

                         Standard orientation:
 ---------------------------------------------------------------------
 Center     Atomic      Atomic             Coordinates (Angstroms)
 Number     Number       Type             X           Y           Z
 ---------------------------------------------------------------------
      1          6           0       -1.436859    4.247283    0.646069
      2          8           0       -1.911149    3.057019    1.260792
      3          1           0       -4.402888   -1.968932    1.166920
      4          6           0       -6.829336   -2.274346    0.119767
      5          6           0       -5.000644   -3.314893   -1.253136
      6          6           0       -5.524544   -2.007528   -0.645678
      7          6           0       -4.253689    2.106652   -1.811724
      8          6           0       -3.113907   -0.163194   -1.466750
      9          6           0       -3.376742    1.257199   -0.910359
     10          1           0       -2.428609   -1.309952    1.710795
     11          1           0       -2.522964    0.929250    2.299011
     12          8           0       -0.516665   -2.150177   -0.138734
     13          1           0        0.037018    0.176565   -1.110923
     14          6           0        6.821225   -1.005606    0.657190
     15          6           0        8.164327   -1.290778    0.877979
     16          6           0        9.147415   -0.759392    0.035501
     17          6           0        8.775497    0.060700   -1.030894
     18          6           0        7.429568    0.346721   -1.252085
     19          8           0        2.421395    0.905597   -1.460978
     20          6           0        6.429700   -0.179639   -0.414455
     21          6           0        5.035283    0.155196   -0.696892
     22          6           0        3.943785   -0.245021   -0.019573
     23          6           0        2.597299    0.196092   -0.457347
     24          8           0       -2.082800    1.920959   -0.787657
     25          6           0       -3.073026   -1.172062   -0.309252
     26          6           0       -4.494446   -1.323375    0.281044
     27          6           0       -4.967202    0.087867    0.733271
     28          6           0       -3.863843    1.130270    0.548611
     29          7           0        1.543610   -0.230135    0.296334
     30          6           0        1.601085   -0.974498    1.572469
     31          6           0        0.119971   -1.132179    1.964475
     32          6           0       -1.629324    1.847952    0.555312
     33          6           0       -0.138080    1.559341    0.543029
     34          6           0        0.167748    0.173857   -0.028186
     35          6           0       -0.645201   -0.950413    0.635529
     36          6           0       -2.152631   -0.691882    0.847041
     37          6           0       -2.516147    0.780706    1.216306
     38          1           0       -1.890607    5.077360    1.193274
     39          1           0       -0.344085    4.339738    0.710388
     40          1           0       -1.739651    4.295262   -0.405304
     41          1           0       -7.589106   -2.708628   -0.540084
     42          1           0       -6.655153   -2.982409    0.940479
     43          1           0       -7.246856   -1.359278    0.552652
     44          1           0       -4.161538   -3.147171   -1.935339
     45          1           0       -4.661449   -4.001694   -0.466596
     46          1           0       -5.791113   -3.821984   -1.818425
     47          1           0       -5.758946   -1.318514   -1.470842
     48          1           0       -4.357002    3.117174   -1.403358
     49          1           0       -3.818861    2.179153   -2.814859
     50          1           0       -5.250524    1.662452   -1.906203
     51          1           0       -2.170733   -0.145729   -2.021261
     52          1           0       -3.895849   -0.449814   -2.178729
     53          1           0        0.398878   -2.192795   -0.473719
     54          1           0        6.070286   -1.426180    1.320281
     55          1           0        8.449307   -1.929977    1.709719
     56          1           0       10.195947   -0.985061    0.211751
     57          1           0        9.532566    0.477419   -1.690106
     58          1           0        7.139261    0.985832   -2.083045
     59          1           0        4.865839    0.802851   -1.556102
     60          1           0        4.026068   -0.889439    0.849344
     61          1           0       -2.705833   -2.134940   -0.658986
     62          1           0       -5.842073    0.402088    0.149601
     63          1           0       -5.289223    0.082086    1.780258
     64          1           0       -4.198215    2.108362    0.905060
     65          1           0        2.175218   -0.427743    2.327233
     66          1           0        2.079919   -1.947945    1.422035
     67          1           0       -0.095733   -2.110729    2.399382
     68          1           0       -0.175347   -0.364593    2.687143
     69          1           0        0.235303    1.636972    1.569648
     70          1           0        0.391542    2.304529   -0.056387
 ---------------------------------------------------------------------

 SCF Done:  E(RB3LYP) =  -1445.30843457     A.U. after   10 cycles

 Excitation energies and oscillator strengths:

 Excited State   1:      Singlet-A      4.0803 eV  303.86 nm  f=0.6642  <S**2>=0.000
     118 ->123         0.14085
     121 ->123         0.27132
     122 ->123         0.63348
 This state for optimization and/or second-order correction.
 Total Energy, E(TD-HF/TD-DFT) =  -1445.15848730
 Copying the excited state density for this state as the 1-particle RhoCI density.

 Excited State   2:      Singlet-A      4.2256 eV  293.41 nm  f=0.1267  <S**2>=0.000
     116 ->123         0.13671
     118 ->123         0.61270
     118 ->125         0.10023
     120 ->123         0.11712
     121 ->123         0.14760
     122 ->123        -0.21570

 Excited State   3:      Singlet-A      4.3706 eV  283.68 nm  f=0.2749  <S**2>=0.000
     118 ->123        -0.19936
     121 ->123         0.63147
     122 ->123        -0.21886

 Excited State   4:      Singlet-A      4.5443 eV  272.84 nm  f=0.0131  <S**2>=0.000
     119 ->123         0.64110
     121 ->124         0.11462
     122 ->124        -0.26780

 Excited State   5:      Singlet-A      4.7307 eV  262.08 nm  f=0.0002  <S**2>=0.000
     118 ->123        -0.12085
     120 ->123         0.69343

 Excited State   6:      Singlet-A      4.9604 eV  249.95 nm  f=0.0006  <S**2>=0.000
     115 ->123         0.10611
     117 ->123         0.68749

 Excited State   7:      Singlet-A      5.1776 eV  239.46 nm  f=0.0036  <S**2>=0.000
     115 ->123         0.24150
     116 ->123         0.63641
     118 ->123        -0.16643

 Excited State   8:      Singlet-A      5.3768 eV  230.59 nm  f=0.0006  <S**2>=0.000
     115 ->123         0.64867
     116 ->123        -0.25149

 Excited State   9:      Singlet-A      5.5031 eV  225.30 nm  f=0.1719  <S**2>=0.000
     119 ->123         0.27237
     119 ->125         0.16820
     122 ->124         0.62470

 Excited State  10:      Singlet-A      5.5660 eV  222.75 nm  f=0.0005  <S**2>=0.000
     114 ->123         0.70038

 The electronic state is 1-A.
 Alpha  occ. eigenvalues --  -19.12081 -19.11927 -19.11918 -19.08230 -14.34201
 Alpha  occ. eigenvalues --  -10.27366 -10.26863 -10.23165 -10.22109 -10.20732
 Alpha  occ. eigenvalues --  -10.20662 -10.20220 -10.19204 -10.19091 -10.18100
 Alpha  occ. eigenvalues --  -10.18082 -10.18055 -10.17932 -10.17865 -10.17823
 Alpha  occ. eigenvalues --  -10.17382 -10.17329 -10.16892 -10.16683 -10.16579
 Alpha  occ. eigenvalues --  -10.16480 -10.16113 -10.16004 -10.15813 -10.15442
 Alpha  occ. eigenvalues --  -10.15391 -10.14942 -10.14887  -1.07019  -1.03920
 Alpha  occ. eigenvalues --   -1.02724  -1.00763  -0.94244  -0.86853  -0.85856
 Alpha  occ. eigenvalues --   -0.81937  -0.80438  -0.79547  -0.77954  -0.76244
 Alpha  occ. eigenvalues --   -0.75634  -0.75379  -0.74056  -0.72792  -0.71686
 Alpha  occ. eigenvalues --   -0.68607  -0.67773  -0.67565  -0.65818  -0.62895
 Alpha  occ. eigenvalues --   -0.62346  -0.61219  -0.60728  -0.59901  -0.59011
 Alpha  occ. eigenvalues --   -0.57424  -0.55537  -0.54533  -0.53799  -0.52422
 Alpha  occ. eigenvalues --   -0.52102  -0.51762  -0.50764  -0.50006  -0.49182
 Alpha  occ. eigenvalues --   -0.47902  -0.47127  -0.46657  -0.46419  -0.45818
 Alpha  occ. eigenvalues --   -0.45024  -0.44806  -0.43990  -0.43357  -0.42906
 Alpha  occ. eigenvalues --   -0.42628  -0.42563  -0.42326  -0.42070  -0.41800
 Alpha  occ. eigenvalues --   -0.41244  -0.40610  -0.40131  -0.39634  -0.39570
 Alpha  occ. eigenvalues --   -0.39120  -0.38710  -0.38588  -0.38008  -0.37715
 Alpha  occ. eigenvalues --   -0.37654  -0.37187  -0.36986  -0.35712  -0.35546
 Alpha  occ. eigenvalues --   -0.35454  -0.35239  -0.34910  -0.34588  -0.34441
 Alpha  occ. eigenvalues --   -0.34195  -0.33142  -0.33024  -0.32761  -0.31736
 Alpha  occ. eigenvalues --   -0.31012  -0.30455  -0.29300  -0.28734  -0.28317
 Alpha  occ. eigenvalues --   -0.27731  -0.26913  -0.26448  -0.26430  -0.25773
 Alpha  occ. eigenvalues --   -0.24599  -0.23569
 Alpha virt. eigenvalues --   -0.06984  -0.01612   0.01395   0.03410   0.04566
 Alpha virt. eigenvalues --    0.05329   0.05500   0.05648   0.06485   0.06839
 Alpha virt. eigenvalues --    0.07059   0.07706   0.07880   0.08708   0.08747

 Mulliken charges:
               1
     1  C   -0.125397
     2  O   -0.419523
     3  H    0.115794
     4  C   -0.277518
     5  C   -0.286970
     6  C   -0.183066
     7  C   -0.225085
     8  C   -0.087862
     9  C    0.009115
    10  H    0.138268
    11  H    0.130311
    12  O   -0.446073
    13  H    0.143002
    14  C   -0.074877
    15  C   -0.118111
    16  C   -0.101350
    17  C   -0.116547
    18  C   -0.076164
    19  O   -0.483673
    20  C   -0.099149
    21  C   -0.029541
    22  C   -0.248293
    23  C    0.480601
    24  O   -0.431471
    25  C   -0.177620
    26  C   -0.167729
    27  C   -0.099019
    28  C   -0.192872
    29  N   -0.446899
    30  C   -0.040611
    31  C   -0.193947
    32  C    0.248515
    33  C   -0.068075
    34  C   -0.031026
    35  C    0.057908
    36  C   -0.098285
    37  C   -0.119200
    38  H    0.120800
    39  H    0.106267
    40  H    0.108300
    41  H    0.108821
    42  H    0.101884
    43  H    0.107895
    44  H    0.114388
    45  H    0.104447
    46  H    0.107429
    47  H    0.115714
    48  H    0.112970
    49  H    0.113646
    50  H    0.115698
    51  H    0.122287
    52  H    0.122472
    53  H    0.272936
    54  H    0.120366
    55  H    0.123048
    56  H    0.124592
    57  H    0.123598
    58  H    0.118790
    59  H    0.110455
    60  H    0.147147
    61  H    0.122731
    62  H    0.121625
    63  H    0.118734
    64  H    0.123193
    65  H    0.147379
    66  H    0.147245
    67  H    0.133335
    68  H    0.141140
    69  H    0.130787
    70  H    0.132319
 Sum of Mulliken charges =  -0.00000

 Dipole moment (field-independent basis, Debye):
    X=              1.4158    Y=             -2.7785    Z=              4.7213  Tot=              5.6582
 Quadrupole moment (field-independent basis, Debye-Ang):
   XX=           -164.0176   YY=           -202.1586   ZZ=           -197.9044
   XY=             -8.8452   XZ=              9.7809   YZ=             -4.6107

 Normal termination of Gaussian 16 at Thu Jun 24 00:24:10 2021.
