 Gaussian 16, Revision A.03,
 Gaussian 16:  ES64L-G16RevA.03 25-Dec-2016

 ----------------------------------------------------------------------
 # td=(nstates=10,root=1) b3lyp/6-311g(d,p) guess=read geom=check integ
 ral(ultrafinegrid) scrf=(iefpcm,read,solvent=methanol)
 ----------------------------------------------------------------------

 Candidate Structure: Revised-SAH-42C-3, Conformer: 1, energy calculati
 on with methanol solvation
 ----------------------------------------------------------------------
 Structure from the checkpoint file:  "Revised-SAH-42C-3-conf-1.chk"
 Charge =  0 Multiplicity = 1

                         Standard orientation:
 ---------------------------------------------------------------------
 Center     Atomic      Atomic             Coordinates (Angstroms)
 Number     Number       Type             X           Y           Z
 ---------------------------------------------------------------------
      1          6           0       -0.126799   -1.771484    3.524601
      2          8           0        0.922837   -0.899472    3.126741
      3          1           0        4.807228    0.921865   -0.487671
      4          6           0        6.631285   -0.733021   -1.490090
      5          6           0        4.919012    0.013380   -3.170274
      6          6           0        5.133677   -0.701707   -1.830402
      7          6           0        2.164006   -3.323839    0.230262
      8          6           0        2.108988   -1.128984   -1.092545
      9          6           0        2.035243   -1.813199    0.293644
     10          1           0        3.068450    1.831697    0.392021
     11          1           0        2.576925    0.739028    2.375491
     12          8           0        1.046327    2.211850   -1.486160
     13          1           0       -0.558723    0.452533   -0.564080
     14          6           0       -6.732924   -0.252626   -0.732637
     15          6           0       -7.516267   -1.371879   -1.008465
     16          6           0       -6.910633   -2.611507   -1.219530
     17          6           0       -5.517220   -2.723276   -1.152293
     18          6           0       -4.735445   -1.606438   -0.877527
     19          8           0       -3.278154    3.320754    0.169362
     20          6           0       -5.331443   -0.348275   -0.663257
     21          6           0       -4.562185    0.860058   -0.371146
     22          6           0       -3.224835    0.972331   -0.279966
     23          6           0       -2.609564    2.283758    0.039631
     24          8           0        0.728297   -1.497951    0.863465
     25          6           0        2.844742    0.213835   -0.967592
     26          6           0        4.338868   -0.055878   -0.673100
     27          6           0        4.414535   -0.905183    0.627875
     28          6           0        3.028771   -1.108621    1.241638
     29          7           0       -1.253363    2.313766    0.183800
     30          6           0       -0.586403    3.560684    0.604619
     31          6           0        0.892985    3.159970    0.740211
     32          6           0        0.851095   -0.424059    1.783365
     33          6           0       -0.339058    0.500788    1.594561
     34          6           0       -0.323290    1.172501    0.220912
     35          6           0        1.014722    1.867403   -0.096271
     36          6           0        2.300323    1.069532    0.210334
     37          6           0        2.230878    0.188586    1.497146
     38          1           0        0.175291   -2.197171    4.484639
     39          1           0       -1.078339   -1.239465    3.660551
     40          1           0       -0.266404   -2.577443    2.796493
     41          1           0        7.201536   -1.239134   -2.277429
     42          1           0        7.024875    0.287444   -1.395554
     43          1           0        6.828269   -1.254535   -0.547578
     44          1           0        3.888665   -0.077791   -3.527698
     45          1           0        5.150408    1.083032   -3.082786
     46          1           0        5.575488   -0.406334   -3.941241
     47          1           0        4.797347   -1.743294   -1.942504
     48          1           0        2.042806   -3.760357    1.226909
     49          1           0        1.400298   -3.748105   -0.431084
     50          1           0        3.146663   -3.608894   -0.160851
     51          1           0        1.088939   -1.000286   -1.467461
     52          1           0        2.631473   -1.769767   -1.811404
     53          1           0        0.167330    2.560372   -1.727617
     54          1           0       -7.204703    0.713544   -0.567720
     55          1           0       -8.597827   -1.276204   -1.058123
     56          1           0       -7.517732   -3.487104   -1.434390
     57          1           0       -5.041011   -3.686858   -1.314568
     58          1           0       -3.655135   -1.710892   -0.826505
     59          1           0       -5.142327    1.767538   -0.209244
     60          1           0       -2.580482    0.112539   -0.427594
     61          1           0        2.739643    0.790399   -1.884475
     62          1           0        4.847160   -1.891117    0.414708
     63          1           0        5.074129   -0.439744    1.368202
     64          1           0        3.102950   -1.674329    2.174348
     65          1           0       -1.021378    3.931901    1.537798
     66          1           0       -0.746035    4.332234   -0.155517
     67          1           0        1.574454    3.923258    0.357707
     68          1           0        1.152472    2.966477    1.786251
     69          1           0       -0.319055    1.259106    2.384092
     70          1           0       -1.272942   -0.059060    1.707806
 ---------------------------------------------------------------------

 SCF Done:  E(RB3LYP) =  -1445.30845460     A.U. after   10 cycles

 Excitation energies and oscillator strengths:

 Excited State   1:      Singlet-A      4.1243 eV  300.62 nm  f=0.7415  <S**2>=0.000
     121 ->123         0.19809
     122 ->123         0.67177
 This state for optimization and/or second-order correction.
 Total Energy, E(TD-HF/TD-DFT) =  -1445.15689096
 Copying the excited state density for this state as the 1-particle RhoCI density.

 Excited State   2:      Singlet-A      4.2616 eV  290.93 nm  f=0.0267  <S**2>=0.000
     116 ->123        -0.14623
     117 ->123         0.14647
     118 ->123         0.14246
     119 ->123         0.61859
     119 ->125        -0.10164
     120 ->123        -0.11797
     122 ->123         0.10871

 Excited State   3:      Singlet-A      4.4275 eV  280.03 nm  f=0.1804  <S**2>=0.000
     119 ->123         0.10789
     121 ->123         0.66807
     122 ->123        -0.18020

 Excited State   4:      Singlet-A      4.5574 eV  272.05 nm  f=0.0128  <S**2>=0.000
     118 ->123         0.62108
     119 ->123        -0.14215
     121 ->124        -0.10187
     122 ->124         0.28138

 Excited State   5:      Singlet-A      4.7284 eV  262.21 nm  f=0.0005  <S**2>=0.000
     119 ->123         0.11901
     120 ->123         0.69497

 Excited State   6:      Singlet-A      4.9809 eV  248.92 nm  f=0.0008  <S**2>=0.000
     117 ->123         0.67812
     119 ->123        -0.16642

 Excited State   7:      Singlet-A      5.2325 eV  236.95 nm  f=0.0062  <S**2>=0.000
     115 ->123         0.23187
     116 ->123         0.64973
     119 ->123         0.13355

 Excited State   8:      Singlet-A      5.3804 eV  230.44 nm  f=0.0007  <S**2>=0.000
     115 ->123         0.65536
     116 ->123        -0.21270
     117 ->123        -0.11635

 Excited State   9:      Singlet-A      5.4969 eV  225.55 nm  f=0.1870  <S**2>=0.000
     118 ->123        -0.27538
     118 ->125         0.15923
     122 ->124         0.62259

 Excited State  10:      Singlet-A      5.5792 eV  222.23 nm  f=0.0002  <S**2>=0.000
     114 ->123         0.69964

 The electronic state is 1-A.
 Alpha  occ. eigenvalues --  -19.12196 -19.12060 -19.12049 -19.08277 -14.34300
 Alpha  occ. eigenvalues --  -10.27373 -10.27005 -10.23345 -10.22202 -10.21313
 Alpha  occ. eigenvalues --  -10.20309 -10.20219 -10.19184 -10.19048 -10.18068
 Alpha  occ. eigenvalues --  -10.18054 -10.18026 -10.17909 -10.17868 -10.17847
 Alpha  occ. eigenvalues --  -10.17475 -10.17416 -10.16875 -10.16829 -10.16759
 Alpha  occ. eigenvalues --  -10.16505 -10.16151 -10.16084 -10.15848 -10.15507
 Alpha  occ. eigenvalues --  -10.15488 -10.14954 -10.14904  -1.07154  -1.04009
 Alpha  occ. eigenvalues --   -1.02907  -1.00884  -0.94332  -0.86831  -0.85926
 Alpha  occ. eigenvalues --   -0.81778  -0.80691  -0.79605  -0.78107  -0.76293
 Alpha  occ. eigenvalues --   -0.75492  -0.75365  -0.74188  -0.72892  -0.71728
 Alpha  occ. eigenvalues --   -0.68637  -0.67763  -0.67582  -0.66133  -0.63264
 Alpha  occ. eigenvalues --   -0.62123  -0.61182  -0.60747  -0.59975  -0.58969
 Alpha  occ. eigenvalues --   -0.57548  -0.55386  -0.54563  -0.53906  -0.52621
 Alpha  occ. eigenvalues --   -0.51870  -0.51653  -0.50852  -0.50290  -0.49943
 Alpha  occ. eigenvalues --   -0.48065  -0.47217  -0.46553  -0.46357  -0.46082
 Alpha  occ. eigenvalues --   -0.44978  -0.44432  -0.43990  -0.43373  -0.43238
 Alpha  occ. eigenvalues --   -0.42764  -0.42560  -0.42341  -0.42099  -0.41885
 Alpha  occ. eigenvalues --   -0.41510  -0.40695  -0.40136  -0.39662  -0.39509
 Alpha  occ. eigenvalues --   -0.39125  -0.38740  -0.38490  -0.38032  -0.37822
 Alpha  occ. eigenvalues --   -0.37667  -0.37289  -0.36895  -0.35744  -0.35553
 Alpha  occ. eigenvalues --   -0.35368  -0.35293  -0.35064  -0.34621  -0.34412
 Alpha  occ. eigenvalues --   -0.34313  -0.33219  -0.33118  -0.32838  -0.31783
 Alpha  occ. eigenvalues --   -0.30958  -0.30622  -0.29383  -0.28841  -0.28349
 Alpha  occ. eigenvalues --   -0.27956  -0.27135  -0.26410  -0.26401  -0.25903
 Alpha  occ. eigenvalues --   -0.24792  -0.23514
 Alpha virt. eigenvalues --   -0.06890  -0.01600   0.01457   0.03289   0.04675
 Alpha virt. eigenvalues --    0.04762   0.05452   0.05681   0.06100   0.06582
 Alpha virt. eigenvalues --    0.07144   0.07663   0.07679   0.08265   0.08671

 Mulliken charges:
               1
     1  C   -0.126360
     2  O   -0.418856
     3  H    0.116480
     4  C   -0.277620
     5  C   -0.286908
     6  C   -0.183005
     7  C   -0.224410
     8  C   -0.089469
     9  C    0.010609
    10  H    0.140129
    11  H    0.131810
    12  O   -0.443056
    13  H    0.166541
    14  C   -0.076336
    15  C   -0.116595
    16  C   -0.101763
    17  C   -0.117730
    18  C   -0.079354
    19  O   -0.482775
    20  C   -0.096783
    21  C   -0.035529
    22  C   -0.233637
    23  C    0.449105
    24  O   -0.432881
    25  C   -0.177468
    26  C   -0.167784
    27  C   -0.098956
    28  C   -0.193571
    29  N   -0.425522
    30  C   -0.037974
    31  C   -0.203119
    32  C    0.245123
    33  C   -0.051169
    34  C   -0.070056
    35  C    0.066899
    36  C   -0.099291
    37  C   -0.117162
    38  H    0.121995
    39  H    0.107306
    40  H    0.108289
    41  H    0.108906
    42  H    0.102151
    43  H    0.107986
    44  H    0.114226
    45  H    0.104784
    46  H    0.107488
    47  H    0.115468
    48  H    0.113357
    49  H    0.113197
    50  H    0.116222
    51  H    0.121255
    52  H    0.123335
    53  H    0.272328
    54  H    0.118519
    55  H    0.123414
    56  H    0.124354
    57  H    0.123082
    58  H    0.120040
    59  H    0.109622
    60  H    0.154751
    61  H    0.123164
    62  H    0.122085
    63  H    0.119196
    64  H    0.123693
    65  H    0.134873
    66  H    0.137264
    67  H    0.133081
    68  H    0.140988
    69  H    0.135094
    70  H    0.136927
 Sum of Mulliken charges =  -0.00000

 Dipole moment (field-independent basis, Debye):
    X=              2.6139    Y=             -3.9631    Z=              0.1945  Tot=              4.7515
 Quadrupole moment (field-independent basis, Debye-Ang):
   XX=           -190.8236   YY=           -202.0122   ZZ=           -203.3842
   XY=             20.0031   XZ=              4.0169   YZ=              4.8019

 Normal termination of Gaussian 16 at Thu Jun 24 00:34:30 2021.
